14
Energy=-1755.87781  globalBestSolution
C -2.959203          3.996994           -2.356957         
H -3.843839          4.104680           -1.764787         
C -1.999770          3.114100           -1.987364         
H -1.341371          2.700488           -2.722545         
F -2.798813          4.740488           -3.472289         
C -1.856870          2.706144           -0.509243         
H -1.303661          1.828437           -0.247647         
C -2.431699          3.458827           0.459995          
H -2.378386          3.146730           1.482148          
C -3.161900          4.763400           0.090400          
H -4.203585          4.742916           -0.153144         
C -2.485100          5.937400           0.073600          
H -1.416800          5.938200           0.013900          
F -3.158800          7.105800           0.132300          
14
Energy=-1755.87781  globalBestSolution
C -2.959203          3.996994           -2.356957         
H -3.843839          4.104680           -1.764787         
C -1.999770          3.114100           -1.987364         
H -1.341371          2.700488           -2.722545         
F -2.798813          4.740488           -3.472289         
C -1.856870          2.706144           -0.509243         
H -1.303661          1.828437           -0.247647         
C -2.431699          3.458827           0.459995          
H -2.378386          3.146730           1.482148          
C -3.161900          4.763400           0.090400          
H -4.203585          4.742916           -0.153144         
C -2.485100          5.937400           0.073600          
H -1.416800          5.938200           0.013900          
F -3.158800          7.105800           0.132300          
14
Energy=-1756.25114  globalBestSolution
C -4.839086          1.947527           2.717021          
H -5.560265          2.375503           3.381535          
C -4.390572          2.659181           1.654478          
H -3.433280          2.440168           1.229412          
F -4.375868          0.698735           2.937071          
C -5.258669          3.783021           1.058591          
H -6.313728          3.795238           1.236197          
C -4.686264          4.756408           0.309423          
H -5.293382          5.520134           -0.130091         
C -3.161900          4.763400           0.090400          
H -2.637121          3.841361           -0.048497         
C -2.485100          5.937400           0.073600          
H -1.416800          5.938200           0.013900          
F -3.158800          7.105800           0.132300          
14
Energy=-1756.25114  globalBestSolution
C -4.839086          1.947527           2.717021          
H -5.560265          2.375503           3.381535          
C -4.390572          2.659181           1.654478          
H -3.433280          2.440168           1.229412          
F -4.375868          0.698735           2.937071          
C -5.258669          3.783021           1.058591          
H -6.313728          3.795238           1.236197          
C -4.686264          4.756408           0.309423          
H -5.293382          5.520134           -0.130091         
C -3.161900          4.763400           0.090400          
H -2.637121          3.841361           -0.048497         
C -2.485100          5.937400           0.073600          
H -1.416800          5.938200           0.013900          
F -3.158800          7.105800           0.132300          
14
Energy=-1756.34  globalBestSolution
C -5.062132          1.691637           2.323715          
H -6.082159          1.782725           2.633700          
C -4.449180          2.725801           1.698089          
H -3.380732          2.770426           1.659582          
F -4.385712          0.546638           2.555895          
C -5.290300          3.836757           1.042357          
H -6.345742          3.879757           1.212754          
C -4.693672          4.759824           0.249662          
H -5.286807          5.486181           -0.265740         
C -3.161900          4.763400           0.090400          
H -2.631974          3.838988           -0.006976         
C -2.485100          5.937400           0.073600          
H -1.416800          5.938200           0.013900          
F -3.158800          7.105800           0.132300          
14
Energy=-1756.34  globalBestSolution
C -5.062132          1.691637           2.323715          
H -6.082159          1.782725           2.633700          
C -4.449180          2.725801           1.698089          
H -3.380732          2.770426           1.659582          
F -4.385712          0.546638           2.555895          
C -5.290300          3.836757           1.042357          
H -6.345742          3.879757           1.212754          
C -4.693672          4.759824           0.249662          
H -5.286807          5.486181           -0.265740         
C -3.161900          4.763400           0.090400          
H -2.631974          3.838988           -0.006976         
C -2.485100          5.937400           0.073600          
H -1.416800          5.938200           0.013900          
F -3.158800          7.105800           0.132300          
14
Energy=-1756.34  globalBestSolution
C -5.062132          1.691637           2.323715          
H -6.082159          1.782725           2.633700          
C -4.449180          2.725801           1.698089          
H -3.380732          2.770426           1.659582          
F -4.385712          0.546638           2.555895          
C -5.290300          3.836757           1.042357          
H -6.345742          3.879757           1.212754          
C -4.693672          4.759824           0.249662          
H -5.286807          5.486181           -0.265740         
C -3.161900          4.763400           0.090400          
H -2.631974          3.838988           -0.006976         
C -2.485100          5.937400           0.073600          
H -1.416800          5.938200           0.013900          
F -3.158800          7.105800           0.132300          
14
Energy=-1756.34  globalBestSolution
C -5.062132          1.691637           2.323715          
H -6.082159          1.782725           2.633700          
C -4.449180          2.725801           1.698089          
H -3.380732          2.770426           1.659582          
F -4.385712          0.546638           2.555895          
C -5.290300          3.836757           1.042357          
H -6.345742          3.879757           1.212754          
C -4.693672          4.759824           0.249662          
H -5.286807          5.486181           -0.265740         
C -3.161900          4.763400           0.090400          
H -2.631974          3.838988           -0.006976         
C -2.485100          5.937400           0.073600          
H -1.416800          5.938200           0.013900          
F -3.158800          7.105800           0.132300          
14
Energy=-1756.34  globalBestSolution
C -5.062132          1.691637           2.323715          
H -6.082159          1.782725           2.633700          
C -4.449180          2.725801           1.698089          
H -3.380732          2.770426           1.659582          
F -4.385712          0.546638           2.555895          
C -5.290300          3.836757           1.042357          
H -6.345742          3.879757           1.212754          
C -4.693672          4.759824           0.249662          
H -5.286807          5.486181           -0.265740         
C -3.161900          4.763400           0.090400          
H -2.631974          3.838988           -0.006976         
C -2.485100          5.937400           0.073600          
H -1.416800          5.938200           0.013900          
F -3.158800          7.105800           0.132300          
14
Energy=-1756.34  globalBestSolution
C -5.062132          1.691637           2.323715          
H -6.082159          1.782725           2.633700          
C -4.449180          2.725801           1.698089          
H -3.380732          2.770426           1.659582          
F -4.385712          0.546638           2.555895          
C -5.290300          3.836757           1.042357          
H -6.345742          3.879757           1.212754          
C -4.693672          4.759824           0.249662          
H -5.286807          5.486181           -0.265740         
C -3.161900          4.763400           0.090400          
H -2.631974          3.838988           -0.006976         
C -2.485100          5.937400           0.073600          
H -1.416800          5.938200           0.013900          
F -3.158800          7.105800           0.132300          
14
Energy=-1756.34  globalBestSolution
C -5.062132          1.691637           2.323715          
H -6.082159          1.782725           2.633700          
C -4.449180          2.725801           1.698089          
H -3.380732          2.770426           1.659582          
F -4.385712          0.546638           2.555895          
C -5.290300          3.836757           1.042357          
H -6.345742          3.879757           1.212754          
C -4.693672          4.759824           0.249662          
H -5.286807          5.486181           -0.265740         
C -3.161900          4.763400           0.090400          
H -2.631974          3.838988           -0.006976         
C -2.485100          5.937400           0.073600          
H -1.416800          5.938200           0.013900          
F -3.158800          7.105800           0.132300          
14
Energy=-1756.34  globalBestSolution
C -5.062132          1.691637           2.323715          
H -6.082159          1.782725           2.633700          
C -4.449180          2.725801           1.698089          
H -3.380732          2.770426           1.659582          
F -4.385712          0.546638           2.555895          
C -5.290300          3.836757           1.042357          
H -6.345742          3.879757           1.212754          
C -4.693672          4.759824           0.249662          
H -5.286807          5.486181           -0.265740         
C -3.161900          4.763400           0.090400          
H -2.631974          3.838988           -0.006976         
C -2.485100          5.937400           0.073600          
H -1.416800          5.938200           0.013900          
F -3.158800          7.105800           0.132300          
14
Energy=-1756.43279  globalBestSolution
C -4.791439          1.614992           1.955040          
H -4.258094          0.702307           2.120540          
C -4.562880          2.339355           0.832689          
H -3.835342          2.008445           0.121181          
F -5.692094          2.044916           2.864140          
C -5.350334          3.638704           0.581104          
H -6.412111          3.654637           0.712326          
C -4.698469          4.761787           0.193626          
H -5.251316          5.647493           -0.040743         
C -3.161900          4.763400           0.090400          
H -2.628641          3.837624           0.031958          
C -2.485100          5.937400           0.073600          
H -1.416800          5.938200           0.013900          
F -3.158800          7.105800           0.132300          
14
Energy=-1756.43279  globalBestSolution
C -4.791439          1.614992           1.955040          
H -4.258094          0.702307           2.120540          
C -4.562880          2.339355           0.832689          
H -3.835342          2.008445           0.121181          
F -5.692094          2.044916           2.864140          
C -5.350334          3.638704           0.581104          
H -6.412111          3.654637           0.712326          
C -4.698469          4.761787           0.193626          
H -5.251316          5.647493           -0.040743         
C -3.161900          4.763400           0.090400          
H -2.628641          3.837624           0.031958          
C -2.485100          5.937400           0.073600          
H -1.416800          5.938200           0.013900          
F -3.158800          7.105800           0.132300          
14
Energy=-1756.45585  globalBestSolution
C -7.633440          2.867769           1.076727          
H -8.701562          2.912930           1.032910          
C -6.905055          4.010122           1.043589          
H -7.397132          4.959687           1.078827          
F -7.011362          1.672915           1.165132          
C -5.369074          3.941735           0.955399          
H -4.828836          3.246106           1.562924          
C -4.701829          4.762504           0.108343          
H -5.244858          5.409930           -0.548164         
C -3.161900          4.763400           0.090400          
H -2.626308          3.837127           0.091212          
C -2.485100          5.937400           0.073600          
H -1.416800          5.938200           0.013900          
F -3.158800          7.105800           0.132300          
14
Energy=-1756.45585  globalBestSolution
C -7.633440          2.867769           1.076727          
H -8.701562          2.912930           1.032910          
C -6.905055          4.010122           1.043589          
H -7.397132          4.959687           1.078827          
F -7.011362          1.672915           1.165132          
C -5.369074          3.941735           0.955399          
H -4.828836          3.246106           1.562924          
C -4.701829          4.762504           0.108343          
H -5.244858          5.409930           -0.548164         
C -3.161900          4.763400           0.090400          
H -2.626308          3.837127           0.091212          
C -2.485100          5.937400           0.073600          
H -1.416800          5.938200           0.013900          
F -3.158800          7.105800           0.132300          
14
Energy=-1756.45585  globalBestSolution
C -7.633440          2.867769           1.076727          
H -8.701562          2.912930           1.032910          
C -6.905055          4.010122           1.043589          
H -7.397132          4.959687           1.078827          
F -7.011362          1.672915           1.165132          
C -5.369074          3.941735           0.955399          
H -4.828836          3.246106           1.562924          
C -4.701829          4.762504           0.108343          
H -5.244858          5.409930           -0.548164         
C -3.161900          4.763400           0.090400          
H -2.626308          3.837127           0.091212          
C -2.485100          5.937400           0.073600          
H -1.416800          5.938200           0.013900          
F -3.158800          7.105800           0.132300          
14
Energy=-1756.45585  globalBestSolution
C -7.633440          2.867769           1.076727          
H -8.701562          2.912930           1.032910          
C -6.905055          4.010122           1.043589          
H -7.397132          4.959687           1.078827          
F -7.011362          1.672915           1.165132          
C -5.369074          3.941735           0.955399          
H -4.828836          3.246106           1.562924          
C -4.701829          4.762504           0.108343          
H -5.244858          5.409930           -0.548164         
C -3.161900          4.763400           0.090400          
H -2.626308          3.837127           0.091212          
C -2.485100          5.937400           0.073600          
H -1.416800          5.938200           0.013900          
F -3.158800          7.105800           0.132300          
14
Energy=-1756.46958  globalBestSolution
C -7.628555          2.687539           0.391255          
H -8.697932          2.706907           0.361269          
C -6.938118          3.818474           0.675677          
H -7.462832          4.726112           0.889973          
F -6.967090          1.536568           0.145888          
C -5.398306          3.797409           0.690674          
H -4.879016          3.021771           1.213709          
C -4.701153          4.761156           0.041403          
H -5.220090          5.520567           -0.505444         
C -3.161900          4.763400           0.090400          
H -2.626779          3.838064           0.137722          
C -2.485100          5.937400           0.073600          
H -1.416800          5.938200           0.013900          
F -3.158800          7.105800           0.132300          
14
Energy=-1756.46958  globalBestSolution
C -7.628555          2.687539           0.391255          
H -8.697932          2.706907           0.361269          
C -6.938118          3.818474           0.675677          
H -7.462832          4.726112           0.889973          
F -6.967090          1.536568           0.145888          
C -5.398306          3.797409           0.690674          
H -4.879016          3.021771           1.213709          
C -4.701153          4.761156           0.041403          
H -5.220090          5.520567           -0.505444         
C -3.161900          4.763400           0.090400          
H -2.626779          3.838064           0.137722          
C -2.485100          5.937400           0.073600          
H -1.416800          5.938200           0.013900          
F -3.158800          7.105800           0.132300          
14
Energy=-1756.49124  globalBestSolution
C -7.569266          2.686974           1.116734          
H -8.639017          2.673729           1.134041          
C -6.915075          3.609669           0.370222          
H -7.467865          4.341644           -0.180859         
F -6.871222          1.784671           1.838578          
C -5.376039          3.604923           0.315109          
H -4.839200          2.687579           0.438098          
C -4.701799          4.762521           0.110786          
H -5.239283          5.676007           -0.036513         
C -3.161900          4.763400           0.090400          
H -2.626329          3.837115           0.089515          
C -2.485100          5.937400           0.073600          
H -1.416800          5.938200           0.013900          
F -3.158800          7.105800           0.132300          
14
Energy=-1756.49124  globalBestSolution
C -7.569266          2.686974           1.116734          
H -8.639017          2.673729           1.134041          
C -6.915075          3.609669           0.370222          
H -7.467865          4.341644           -0.180859         
F -6.871222          1.784671           1.838578          
C -5.376039          3.604923           0.315109          
H -4.839200          2.687579           0.438098          
C -4.701799          4.762521           0.110786          
H -5.239283          5.676007           -0.036513         
C -3.161900          4.763400           0.090400          
H -2.626329          3.837115           0.089515          
C -2.485100          5.937400           0.073600          
H -1.416800          5.938200           0.013900          
F -3.158800          7.105800           0.132300          
14
Energy=-1756.49124  globalBestSolution
C -7.569266          2.686974           1.116734          
H -8.639017          2.673729           1.134041          
C -6.915075          3.609669           0.370222          
H -7.467865          4.341644           -0.180859         
F -6.871222          1.784671           1.838578          
C -5.376039          3.604923           0.315109          
H -4.839200          2.687579           0.438098          
C -4.701799          4.762521           0.110786          
H -5.239283          5.676007           -0.036513         
C -3.161900          4.763400           0.090400          
H -2.626329          3.837115           0.089515          
C -2.485100          5.937400           0.073600          
H -1.416800          5.938200           0.013900          
F -3.158800          7.105800           0.132300          
14
Energy=-1756.49124  globalBestSolution
C -7.569266          2.686974           1.116734          
H -8.639017          2.673729           1.134041          
C -6.915075          3.609669           0.370222          
H -7.467865          4.341644           -0.180859         
F -6.871222          1.784671           1.838578          
C -5.376039          3.604923           0.315109          
H -4.839200          2.687579           0.438098          
C -4.701799          4.762521           0.110786          
H -5.239283          5.676007           -0.036513         
C -3.161900          4.763400           0.090400          
H -2.626329          3.837115           0.089515          
C -2.485100          5.937400           0.073600          
H -1.416800          5.938200           0.013900          
F -3.158800          7.105800           0.132300          
14
Energy=-1756.49185  globalBestSolution
C -7.590470          2.600577           0.835016          
H -8.659965          2.579754           0.810736          
C -6.917316          3.587742           0.195500          
H -7.455812          4.365927           -0.304006         
F -6.911641          1.643609           1.502758          
C -5.377307          3.589745           0.187765          
H -4.840947          2.665069           0.233976          
C -4.701602          4.762573           0.122362          
H -5.237794          5.688137           0.092805          
C -3.161900          4.763400           0.090400          
H -2.626466          3.837079           0.081472          
C -2.485100          5.937400           0.073600          
H -1.416800          5.938200           0.013900          
F -3.158800          7.105800           0.132300          
14
Energy=-1756.49185  globalBestSolution
C -7.590470          2.600577           0.835016          
H -8.659965          2.579754           0.810736          
C -6.917316          3.587742           0.195500          
H -7.455812          4.365927           -0.304006         
F -6.911641          1.643609           1.502758          
C -5.377307          3.589745           0.187765          
H -4.840947          2.665069           0.233976          
C -4.701602          4.762573           0.122362          
H -5.237794          5.688137           0.092805          
C -3.161900          4.763400           0.090400          
H -2.626466          3.837079           0.081472          
C -2.485100          5.937400           0.073600          
H -1.416800          5.938200           0.013900          
F -3.158800          7.105800           0.132300          
14
Energy=-1756.49292  globalBestSolution
C -7.600470          2.558271           0.666924          
H -8.670362          2.555772           0.654059          
C -6.918542          3.587171           0.107503          
H -7.450080          4.398754           -0.344002         
F -6.929876          1.536604           1.240489          
C -5.378579          3.588526           0.121715          
H -4.843041          2.662522           0.145334          
C -4.701871          4.762469           0.104234          
H -5.237458          5.688845           0.099924          
C -3.161900          4.763400           0.090400          
H -2.626279          3.837151           0.094068          
C -2.485100          5.937400           0.073600          
H -1.416800          5.938200           0.013900          
F -3.158800          7.105800           0.132300          
14
Energy=-1756.49292  globalBestSolution
C -7.600470          2.558271           0.666924          
H -8.670362          2.555772           0.654059          
C -6.918542          3.587171           0.107503          
H -7.450080          4.398754           -0.344002         
F -6.929876          1.536604           1.240489          
C -5.378579          3.588526           0.121715          
H -4.843041          2.662522           0.145334          
C -4.701871          4.762469           0.104234          
H -5.237458          5.688845           0.099924          
C -3.161900          4.763400           0.090400          
H -2.626279          3.837151           0.094068          
C -2.485100          5.937400           0.073600          
H -1.416800          5.938200           0.013900          
F -3.158800          7.105800           0.132300          
14
Energy=-1756.49399  globalBestSolution
C -7.529033          2.595470           1.066131          
H -8.594378          2.600410           1.165418          
C -6.907332          3.589093           0.385827          
H -7.482519          4.373895           -0.059482         
F -6.804177          1.599561           1.618602          
C -5.372978          3.588908           0.253739          
H -4.838640          2.662346           0.225312          
C -4.699692          4.762203           0.173450          
H -5.236473          5.687880           0.167633          
C -3.161900          4.763400           0.090400          
H -2.627792          3.837335           0.045977          
C -2.485100          5.937400           0.073600          
H -1.416800          5.938200           0.013900          
F -3.158800          7.105800           0.132300          
14
Energy=-1756.49399  globalBestSolution
C -7.529033          2.595470           1.066131          
H -8.594378          2.600410           1.165418          
C -6.907332          3.589093           0.385827          
H -7.482519          4.373895           -0.059482         
F -6.804177          1.599561           1.618602          
C -5.372978          3.588908           0.253739          
H -4.838640          2.662346           0.225312          
C -4.699692          4.762203           0.173450          
H -5.236473          5.687880           0.167633          
C -3.161900          4.763400           0.090400          
H -2.627792          3.837335           0.045977          
C -2.485100          5.937400           0.073600          
H -1.416800          5.938200           0.013900          
F -3.158800          7.105800           0.132300          
14
Energy=-1756.49399  globalBestSolution
C -7.529033          2.595470           1.066131          
H -8.594378          2.600410           1.165418          
C -6.907332          3.589093           0.385827          
H -7.482519          4.373895           -0.059482         
F -6.804177          1.599561           1.618602          
C -5.372978          3.588908           0.253739          
H -4.838640          2.662346           0.225312          
C -4.699692          4.762203           0.173450          
H -5.236473          5.687880           0.167633          
C -3.161900          4.763400           0.090400          
H -2.627792          3.837335           0.045977          
C -2.485100          5.937400           0.073600          
H -1.416800          5.938200           0.013900          
F -3.158800          7.105800           0.132300          
14
Energy=-1756.49399  globalBestSolution
C -7.529033          2.595470           1.066131          
H -8.594378          2.600410           1.165418          
C -6.907332          3.589093           0.385827          
H -7.482519          4.373895           -0.059482         
F -6.804177          1.599561           1.618602          
C -5.372978          3.588908           0.253739          
H -4.838640          2.662346           0.225312          
C -4.699692          4.762203           0.173450          
H -5.236473          5.687880           0.167633          
C -3.161900          4.763400           0.090400          
H -2.627792          3.837335           0.045977          
C -2.485100          5.937400           0.073600          
H -1.416800          5.938200           0.013900          
F -3.158800          7.105800           0.132300          
14
Energy=-1756.49399  globalBestSolution
C -7.529033          2.595470           1.066131          
H -8.594378          2.600410           1.165418          
C -6.907332          3.589093           0.385827          
H -7.482519          4.373895           -0.059482         
F -6.804177          1.599561           1.618602          
C -5.372978          3.588908           0.253739          
H -4.838640          2.662346           0.225312          
C -4.699692          4.762203           0.173450          
H -5.236473          5.687880           0.167633          
C -3.161900          4.763400           0.090400          
H -2.627792          3.837335           0.045977          
C -2.485100          5.937400           0.073600          
H -1.416800          5.938200           0.013900          
F -3.158800          7.105800           0.132300          
14
Energy=-1756.49399  globalBestSolution
C -7.529033          2.595470           1.066131          
H -8.594378          2.600410           1.165418          
C -6.907332          3.589093           0.385827          
H -7.482519          4.373895           -0.059482         
F -6.804177          1.599561           1.618602          
C -5.372978          3.588908           0.253739          
H -4.838640          2.662346           0.225312          
C -4.699692          4.762203           0.173450          
H -5.236473          5.687880           0.167633          
C -3.161900          4.763400           0.090400          
H -2.627792          3.837335           0.045977          
C -2.485100          5.937400           0.073600          
H -1.416800          5.938200           0.013900          
F -3.158800          7.105800           0.132300          
14
Energy=-1756.49473  globalBestSolution
C -7.614719          2.480970           0.156312          
H -8.674138          2.469434           0.305780          
C -6.895844          3.581399           0.486292          
H -7.390798          4.447773           0.872909          
F -6.994127          1.399359           -0.360853         
C -5.366521          3.585033           0.305053          
H -4.834893          2.659753           0.227129          