14
Energy=-1755.87781  iterationBestSolution
C -2.959203          3.996994           -2.356957         
H -3.843839          4.104680           -1.764787         
C -1.999770          3.114100           -1.987364         
H -1.341371          2.700488           -2.722545         
F -2.798813          4.740488           -3.472289         
C -1.856870          2.706144           -0.509243         
H -1.303661          1.828437           -0.247647         
C -2.431699          3.458827           0.459995          
H -2.378386          3.146730           1.482148          
C -3.161900          4.763400           0.090400          
H -4.203585          4.742916           -0.153144         
C -2.485100          5.937400           0.073600          
H -1.416800          5.938200           0.013900          
F -3.158800          7.105800           0.132300          
14
Energy=-1755.87781  iterationBestSolution
C -2.959203          3.996994           -2.356957         
H -3.843839          4.104680           -1.764787         
C -1.999770          3.114100           -1.987364         
H -1.341371          2.700488           -2.722545         
F -2.798813          4.740488           -3.472289         
C -1.856870          2.706144           -0.509243         
H -1.303661          1.828437           -0.247647         
C -2.431699          3.458827           0.459995          
H -2.378386          3.146730           1.482148          
C -3.161900          4.763400           0.090400          
H -4.203585          4.742916           -0.153144         
C -2.485100          5.937400           0.073600          
H -1.416800          5.938200           0.013900          
F -3.158800          7.105800           0.132300          
14
Energy=-1756.25114  iterationBestSolution
C -4.839086          1.947527           2.717021          
H -5.560265          2.375503           3.381535          
C -4.390572          2.659181           1.654478          
H -3.433280          2.440168           1.229412          
F -4.375868          0.698735           2.937071          
C -5.258669          3.783021           1.058591          
H -6.313728          3.795238           1.236197          
C -4.686264          4.756408           0.309423          
H -5.293382          5.520134           -0.130091         
C -3.161900          4.763400           0.090400          
H -2.637121          3.841361           -0.048497         
C -2.485100          5.937400           0.073600          
H -1.416800          5.938200           0.013900          
F -3.158800          7.105800           0.132300          
14
Energy=-1756.25114  iterationBestSolution
C -4.839086          1.947527           2.717021          
H -5.560265          2.375503           3.381535          
C -4.390572          2.659181           1.654478          
H -3.433280          2.440168           1.229412          
F -4.375868          0.698735           2.937071          
C -5.258669          3.783021           1.058591          
H -6.313728          3.795238           1.236197          
C -4.686264          4.756408           0.309423          
H -5.293382          5.520134           -0.130091         
C -3.161900          4.763400           0.090400          
H -2.637121          3.841361           -0.048497         
C -2.485100          5.937400           0.073600          
H -1.416800          5.938200           0.013900          
F -3.158800          7.105800           0.132300          
14
Energy=-1756.34  iterationBestSolution
C -5.062132          1.691637           2.323715          
H -6.082159          1.782725           2.633700          
C -4.449180          2.725801           1.698089          
H -3.380732          2.770426           1.659582          
F -4.385712          0.546638           2.555895          
C -5.290300          3.836757           1.042357          
H -6.345742          3.879757           1.212754          
C -4.693672          4.759824           0.249662          
H -5.286807          5.486181           -0.265740         
C -3.161900          4.763400           0.090400          
H -2.631974          3.838988           -0.006976         
C -2.485100          5.937400           0.073600          
H -1.416800          5.938200           0.013900          
F -3.158800          7.105800           0.132300          
14
Energy=-1756.34  iterationBestSolution
C -5.062132          1.691637           2.323715          
H -6.082159          1.782725           2.633700          
C -4.449180          2.725801           1.698089          
H -3.380732          2.770426           1.659582          
F -4.385712          0.546638           2.555895          
C -5.290300          3.836757           1.042357          
H -6.345742          3.879757           1.212754          
C -4.693672          4.759824           0.249662          
H -5.286807          5.486181           -0.265740         
C -3.161900          4.763400           0.090400          
H -2.631974          3.838988           -0.006976         
C -2.485100          5.937400           0.073600          
H -1.416800          5.938200           0.013900          
F -3.158800          7.105800           0.132300          
14
Energy=-1756.16656  iterationBestSolution
C -4.891151          3.265200           -3.169991         
H -5.679944          3.858144           -3.583592         
C -4.740099          3.181084           -1.825848         
H -4.162275          2.386935           -1.400993         
F -4.046482          2.600796           -3.987045         
C -5.399885          4.228534           -0.909758         
H -6.409631          4.534517           -1.087610         
C -4.701618          4.762571           0.121556          
H -5.220004          5.183811           0.957544          
C -3.161900          4.763400           0.090400          
H -2.626454          3.837080           0.082032          
C -2.485100          5.937400           0.073600          
H -1.416800          5.938200           0.013900          
F -3.158800          7.105800           0.132300          
14
Energy=-1756.16656  iterationBestSolution
C -4.891151          3.265200           -3.169991         
H -5.679944          3.858144           -3.583592         
C -4.740099          3.181084           -1.825848         
H -4.162275          2.386935           -1.400993         
F -4.046482          2.600796           -3.987045         
C -5.399885          4.228534           -0.909758         
H -6.409631          4.534517           -1.087610         
C -4.701618          4.762571           0.121556          
H -5.220004          5.183811           0.957544          
C -3.161900          4.763400           0.090400          
H -2.626454          3.837080           0.082032          
C -2.485100          5.937400           0.073600          
H -1.416800          5.938200           0.013900          
F -3.158800          7.105800           0.132300          
14
Energy=-1756.29694  iterationBestSolution
C -4.984614          1.075832           -0.971055         
H -4.404544          0.182102           -1.069074         
C -4.371614          2.256506           -0.712497         
H -4.876289          3.177581           -0.917383         
F -6.327066          1.027390           -1.105046         
C -2.948713          2.272672           -0.123615         
H -2.391535          1.362522           -0.046019         
C -2.402383          3.439582           0.296179          
H -1.443311          3.441262           0.770754          
C -3.161900          4.763400           0.090400          
H -4.223955          4.756288           -0.039326         
C -2.485100          5.937400           0.073600          
H -1.416800          5.938200           0.013900          
F -3.158800          7.105800           0.132300          
14
Energy=-1756.29694  iterationBestSolution
C -4.984614          1.075832           -0.971055         
H -4.404544          0.182102           -1.069074         
C -4.371614          2.256506           -0.712497         
H -4.876289          3.177581           -0.917383         
F -6.327066          1.027390           -1.105046         
C -2.948713          2.272672           -0.123615         
H -2.391535          1.362522           -0.046019         
C -2.402383          3.439582           0.296179          
H -1.443311          3.441262           0.770754          
C -3.161900          4.763400           0.090400          
H -4.223955          4.756288           -0.039326         
C -2.485100          5.937400           0.073600          
H -1.416800          5.938200           0.013900          
F -3.158800          7.105800           0.132300          
14
Energy=-1756.45661  iterationBestSolution
C -7.424628          2.544207           1.506565          
H -8.432868          2.606912           1.859213          
C -6.829884          3.631338           0.957895          
H -7.410663          4.500318           0.728491          
F -6.744937          1.382246           1.608263          
C -5.318100          3.616242           0.664686          
H -4.765006          2.704658           0.753807          
C -4.688435          4.757436           0.293767          
H -5.251849          5.654425           0.142048          
C -3.161900          4.763400           0.090400          
H -2.635612          3.840647           -0.037619         
C -2.485100          5.937400           0.073600          
H -1.416800          5.938200           0.013900          
F -3.158800          7.105800           0.132300          
14
Energy=-1756.45661  iterationBestSolution
C -7.424628          2.544207           1.506565          
H -8.432868          2.606912           1.859213          
C -6.829884          3.631338           0.957895          
H -7.410663          4.500318           0.728491          
F -6.744937          1.382246           1.608263          
C -5.318100          3.616242           0.664686          
H -4.765006          2.704658           0.753807          
C -4.688435          4.757436           0.293767          
H -5.251849          5.654425           0.142048          
C -3.161900          4.763400           0.090400          
H -2.635612          3.840647           -0.037619         
C -2.485100          5.937400           0.073600          
H -1.416800          5.938200           0.013900          
F -3.158800          7.105800           0.132300          
14
Energy=-1756.43279  iterationBestSolution
C -4.791439          1.614992           1.955040          
H -4.258094          0.702307           2.120540          
C -4.562880          2.339355           0.832689          
H -3.835342          2.008445           0.121181          
F -5.692094          2.044916           2.864140          
C -5.350334          3.638704           0.581104          
H -6.412111          3.654637           0.712326          
C -4.698469          4.761787           0.193626          
H -5.251316          5.647493           -0.040743         
C -3.161900          4.763400           0.090400          
H -2.628641          3.837624           0.031958          
C -2.485100          5.937400           0.073600          
H -1.416800          5.938200           0.013900          
F -3.158800          7.105800           0.132300          
14
Energy=-1756.43279  iterationBestSolution
C -4.791439          1.614992           1.955040          
H -4.258094          0.702307           2.120540          
C -4.562880          2.339355           0.832689          
H -3.835342          2.008445           0.121181          
F -5.692094          2.044916           2.864140          
C -5.350334          3.638704           0.581104          
H -6.412111          3.654637           0.712326          
C -4.698469          4.761787           0.193626          
H -5.251316          5.647493           -0.040743         
C -3.161900          4.763400           0.090400          
H -2.628641          3.837624           0.031958          
C -2.485100          5.937400           0.073600          
H -1.416800          5.938200           0.013900          
F -3.158800          7.105800           0.132300          
14
Energy=-1756.45585  iterationBestSolution
C -7.633440          2.867769           1.076727          
H -8.701562          2.912930           1.032910          
C -6.905055          4.010122           1.043589          
H -7.397132          4.959687           1.078827          
F -7.011362          1.672915           1.165132          
C -5.369074          3.941735           0.955399          
H -4.828836          3.246106           1.562924          
C -4.701829          4.762504           0.108343          
H -5.244858          5.409930           -0.548164         
C -3.161900          4.763400           0.090400          
H -2.626308          3.837127           0.091212          
C -2.485100          5.937400           0.073600          
H -1.416800          5.938200           0.013900          
F -3.158800          7.105800           0.132300          
14
Energy=-1756.45585  iterationBestSolution
C -7.633440          2.867769           1.076727          
H -8.701562          2.912930           1.032910          
C -6.905055          4.010122           1.043589          
H -7.397132          4.959687           1.078827          
F -7.011362          1.672915           1.165132          
C -5.369074          3.941735           0.955399          
H -4.828836          3.246106           1.562924          
C -4.701829          4.762504           0.108343          
H -5.244858          5.409930           -0.548164         
C -3.161900          4.763400           0.090400          
H -2.626308          3.837127           0.091212          
C -2.485100          5.937400           0.073600          
H -1.416800          5.938200           0.013900          
F -3.158800          7.105800           0.132300          
14
Energy=-1756.45716  iterationBestSolution
C -7.461329          2.586415           0.940359          
H -8.526411          2.495991           0.892753          
C -6.884326          3.812621           0.930458          
H -7.493826          4.690349           0.874265          
F -6.692296          1.479095           1.010397          
C -5.351408          3.942924           1.000264          
H -4.799861          3.386224           1.728771          
C -4.701166          4.762560           0.139006          
H -5.257164          5.409132           -0.507411         
C -3.161900          4.763400           0.090400          
H -2.626768          3.837087           0.069908          
C -2.485100          5.937400           0.073600          
H -1.416800          5.938200           0.013900          
F -3.158800          7.105800           0.132300          
14
Energy=-1756.45716  iterationBestSolution
C -7.461329          2.586415           0.940359          
H -8.526411          2.495991           0.892753          
C -6.884326          3.812621           0.930458          
H -7.493826          4.690349           0.874265          
F -6.692296          1.479095           1.010397          
C -5.351408          3.942924           1.000264          
H -4.799861          3.386224           1.728771          
C -4.701166          4.762560           0.139006          
H -5.257164          5.409132           -0.507411         
C -3.161900          4.763400           0.090400          
H -2.626768          3.837087           0.069908          
C -2.485100          5.937400           0.073600          
H -1.416800          5.938200           0.013900          
F -3.158800          7.105800           0.132300          
14
Energy=-1756.46958  iterationBestSolution
C -7.628555          2.687539           0.391255          
H -8.697932          2.706907           0.361269          
C -6.938118          3.818474           0.675677          
H -7.462832          4.726112           0.889973          
F -6.967090          1.536568           0.145888          
C -5.398306          3.797409           0.690674          
H -4.879016          3.021771           1.213709          
C -4.701153          4.761156           0.041403          
H -5.220090          5.520567           -0.505444         
C -3.161900          4.763400           0.090400          
H -2.626779          3.838064           0.137722          
C -2.485100          5.937400           0.073600          
H -1.416800          5.938200           0.013900          
F -3.158800          7.105800           0.132300          
14
Energy=-1756.46958  iterationBestSolution
C -7.628555          2.687539           0.391255          
H -8.697932          2.706907           0.361269          
C -6.938118          3.818474           0.675677          
H -7.462832          4.726112           0.889973          
F -6.967090          1.536568           0.145888          
C -5.398306          3.797409           0.690674          
H -4.879016          3.021771           1.213709          
C -4.701153          4.761156           0.041403          
H -5.220090          5.520567           -0.505444         
C -3.161900          4.763400           0.090400          
H -2.626779          3.838064           0.137722          
C -2.485100          5.937400           0.073600          
H -1.416800          5.938200           0.013900          
F -3.158800          7.105800           0.132300          
14
Energy=-1756.49124  iterationBestSolution
C -7.569266          2.686974           1.116734          
H -8.639017          2.673729           1.134041          
C -6.915075          3.609669           0.370222          
H -7.467865          4.341644           -0.180859         
F -6.871222          1.784671           1.838578          
C -5.376039          3.604923           0.315109          
H -4.839200          2.687579           0.438098          
C -4.701799          4.762521           0.110786          
H -5.239283          5.676007           -0.036513         
C -3.161900          4.763400           0.090400          
H -2.626329          3.837115           0.089515          
C -2.485100          5.937400           0.073600          
H -1.416800          5.938200           0.013900          
F -3.158800          7.105800           0.132300          
14
Energy=-1756.49124  iterationBestSolution
C -7.569266          2.686974           1.116734          
H -8.639017          2.673729           1.134041          
C -6.915075          3.609669           0.370222          
H -7.467865          4.341644           -0.180859         
F -6.871222          1.784671           1.838578          
C -5.376039          3.604923           0.315109          
H -4.839200          2.687579           0.438098          
C -4.701799          4.762521           0.110786          
H -5.239283          5.676007           -0.036513         
C -3.161900          4.763400           0.090400          
H -2.626329          3.837115           0.089515          
C -2.485100          5.937400           0.073600          
H -1.416800          5.938200           0.013900          
F -3.158800          7.105800           0.132300          
14
Energy=-1756.48972  iterationBestSolution
C -7.474831          2.599926           1.310577          
H -8.539570          2.577825           1.413943          
C -6.884285          3.584542           0.590577          
H -7.479535          4.360664           0.156564          
F -6.719708          1.647112           1.897439          
C -5.356457          3.586615           0.397117          
H -4.818703          2.661839           0.375862          
C -4.693242          4.759634           0.253745          
H -5.233499          5.683303           0.253904          
C -3.161900          4.763400           0.090400          
H -2.632273          3.839120           -0.009813         
C -2.485100          5.937400           0.073600          
H -1.416800          5.938200           0.013900          
F -3.158800          7.105800           0.132300          
14
Energy=-1756.48972  iterationBestSolution
C -7.474831          2.599926           1.310577          
H -8.539570          2.577825           1.413943          
C -6.884285          3.584542           0.590577          
H -7.479535          4.360664           0.156564          
F -6.719708          1.647112           1.897439          
C -5.356457          3.586615           0.397117          
H -4.818703          2.661839           0.375862          
C -4.693242          4.759634           0.253745          
H -5.233499          5.683303           0.253904          
C -3.161900          4.763400           0.090400          
H -2.632273          3.839120           -0.009813         
C -2.485100          5.937400           0.073600          
H -1.416800          5.938200           0.013900          
F -3.158800          7.105800           0.132300          
14
Energy=-1756.49185  iterationBestSolution
C -7.590470          2.600577           0.835016          
H -8.659965          2.579754           0.810736          
C -6.917316          3.587742           0.195500          
H -7.455812          4.365927           -0.304006         
F -6.911641          1.643609           1.502758          
C -5.377307          3.589745           0.187765          
H -4.840947          2.665069           0.233976          
C -4.701602          4.762573           0.122362          
H -5.237794          5.688137           0.092805          
C -3.161900          4.763400           0.090400          
H -2.626466          3.837079           0.081472          
C -2.485100          5.937400           0.073600          
H -1.416800          5.938200           0.013900          
F -3.158800          7.105800           0.132300          
14
Energy=-1756.49185  iterationBestSolution
C -7.590470          2.600577           0.835016          
H -8.659965          2.579754           0.810736          
C -6.917316          3.587742           0.195500          
H -7.455812          4.365927           -0.304006         
F -6.911641          1.643609           1.502758          
C -5.377307          3.589745           0.187765          
H -4.840947          2.665069           0.233976          
C -4.701602          4.762573           0.122362          
H -5.237794          5.688137           0.092805          
C -3.161900          4.763400           0.090400          
H -2.626466          3.837079           0.081472          
C -2.485100          5.937400           0.073600          
H -1.416800          5.938200           0.013900          
F -3.158800          7.105800           0.132300          
14
Energy=-1756.49292  iterationBestSolution
C -7.600470          2.558271           0.666924          
H -8.670362          2.555772           0.654059          
C -6.918542          3.587171           0.107503          
H -7.450080          4.398754           -0.344002         
F -6.929876          1.536604           1.240489          
C -5.378579          3.588526           0.121715          
H -4.843041          2.662522           0.145334          
C -4.701871          4.762469           0.104234          
H -5.237458          5.688845           0.099924          
C -3.161900          4.763400           0.090400          
H -2.626279          3.837151           0.094068          
C -2.485100          5.937400           0.073600          
H -1.416800          5.938200           0.013900          
F -3.158800          7.105800           0.132300          
14
Energy=-1756.49292  iterationBestSolution
C -7.600470          2.558271           0.666924          
H -8.670362          2.555772           0.654059          
C -6.918542          3.587171           0.107503          
H -7.450080          4.398754           -0.344002         
F -6.929876          1.536604           1.240489          
C -5.378579          3.588526           0.121715          
H -4.843041          2.662522           0.145334          
C -4.701871          4.762469           0.104234          
H -5.237458          5.688845           0.099924          
C -3.161900          4.763400           0.090400          
H -2.626279          3.837151           0.094068          
C -2.485100          5.937400           0.073600          
H -1.416800          5.938200           0.013900          
F -3.158800          7.105800           0.132300          
14
Energy=-1756.49399  iterationBestSolution
C -7.529033          2.595470           1.066131          
H -8.594378          2.600410           1.165418          
C -6.907332          3.589093           0.385827          
H -7.482519          4.373895           -0.059482         
F -6.804177          1.599561           1.618602          
C -5.372978          3.588908           0.253739          
H -4.838640          2.662346           0.225312          
C -4.699692          4.762203           0.173450          
H -5.236473          5.687880           0.167633          
C -3.161900          4.763400           0.090400          
H -2.627792          3.837335           0.045977          
C -2.485100          5.937400           0.073600          
H -1.416800          5.938200           0.013900          
F -3.158800          7.105800           0.132300          
14
Energy=-1756.49399  iterationBestSolution
C -7.529033          2.595470           1.066131          
H -8.594378          2.600410           1.165418          
C -6.907332          3.589093           0.385827          
H -7.482519          4.373895           -0.059482         
F -6.804177          1.599561           1.618602          
C -5.372978          3.588908           0.253739          
H -4.838640          2.662346           0.225312          
C -4.699692          4.762203           0.173450          
H -5.236473          5.687880           0.167633          
C -3.161900          4.763400           0.090400          
H -2.627792          3.837335           0.045977          
C -2.485100          5.937400           0.073600          
H -1.416800          5.938200           0.013900          
F -3.158800          7.105800           0.132300          
14
Energy=-1756.492  iterationBestSolution
C -7.602647          2.517272           0.422421          
H -8.671011          2.535898           0.478044          
C -6.926469          3.616345           0.008376          
H -7.462419          4.489642           -0.300114         
F -6.928248          1.399035           0.764777          
C -5.386685          3.608605           -0.018013         
H -4.859095          2.692267           -0.181766         
C -4.700073          4.762317           0.166085          
H -5.226592          5.672635           0.363930          
C -3.161900          4.763400           0.090400          
H -2.627528          3.837256           0.051094          
C -2.485100          5.937400           0.073600          
H -1.416800          5.938200           0.013900          
F -3.158800          7.105800           0.132300          
14
Energy=-1756.492  iterationBestSolution
C -7.602647          2.517272           0.422421          
H -8.671011          2.535898           0.478044          
C -6.926469          3.616345           0.008376          
H -7.462419          4.489642           -0.300114         
F -6.928248          1.399035           0.764777          
C -5.386685          3.608605           -0.018013         
H -4.859095          2.692267           -0.181766         
C -4.700073          4.762317           0.166085          
H -5.226592          5.672635           0.363930          
C -3.161900          4.763400           0.090400          
H -2.627528          3.837256           0.051094          
C -2.485100          5.937400           0.073600          
H -1.416800          5.938200           0.013900          
F -3.158800          7.105800           0.132300          
14
Energy=-1756.49355  iterationBestSolution
C -7.505399          2.554416           1.145975          
H -8.568767          2.555481           1.264677          
C -6.893751          3.582197           0.508663          
H -7.474836          4.391619           0.118495          
F -6.773021          1.529368           1.631128          
C -5.362331          3.585391           0.346083          
H -4.826041          2.660130           0.312501          
C -4.694101          4.760011           0.245494          
H -5.230993          5.685210           0.273703          
C -3.161900          4.763400           0.090400          
H -2.631676          3.838858           -0.004079         
C -2.485100          5.937400           0.073600          
H -1.416800          5.938200           0.013900          
F -3.158800          7.105800           0.132300          
14
Energy=-1756.49355  iterationBestSolution
C -7.505399          2.554416           1.145975          
H -8.568767          2.555481           1.264677          
C -6.893751          3.582197           0.508663          
H -7.474836          4.391619           0.118495          
F -6.773021          1.529368           1.631128          
C -5.362331          3.585391           0.346083          
H -4.826041          2.660130           0.312501          
C -4.694101          4.760011           0.245494          
H -5.230993          5.685210           0.273703          
C -3.161900          4.763400           0.090400          
H -2.631676          3.838858           -0.004079         
C -2.485100          5.937400           0.073600          
H -1.416800          5.938200           0.013900          
F -3.158800          7.105800           0.132300          
14
Energy=-1756.49473  iterationBestSolution
C -7.614719          2.480970           0.156312          
H -8.674138          2.469434           0.305780          
C -6.895844          3.581399           0.486292          
H -7.390798          4.447773           0.872909          
F -6.994127          1.399359           -0.360853         